<?xml version="1.0" encoding="UTF-8"?>

<!-- generated on 9/13/2016 1:28:37 PM by SUMO gui Version 0.27.1
<?xml version="1.0" encoding="UTF-8"?>

<configuration xmlns:xsi="http://www.w3.org/2001/XMLSchema-instance" xsi:noNamespaceSchemaLocation="http://sumo.dlr.de/xsd/sumo-gui.exeConfiguration.xsd">

    <input>
        <net-file value="F:\Capstone\AUH\osm\island.net.xml"/>
        <route-files value="F:\Capstone\AUH\osm\island.trips.xml"/>
        <additional-files value="F:\Capstone\AUH\osm\dump_900.add.xml"/>
    </input>

    <output>
        <summary-output value="F:\Capstone\AUH\osm\summary_900.xml"/>
        <tripinfo-output value="F:\Capstone\AUH\osm\tripinfo_900.xml"/>
        <vehroute-output value="F:\Capstone\AUH\osm\vehroutes_900.xml"/>
        <vehroute-output.exit-times value="false"/>
        <vehroute-output.last-route value="true"/>
        <vehroute-output.sorted value="true"/>
    </output>

    <time>
        <begin value="0"/>
        <end value="3600"/>
    </time>

    <processing>
        <route-steps value="200"/>
    </processing>

    <routing>
        <routing-algorithm value="astar"/>
        <device.rerouting.probability value="1"/>
        <device.rerouting.period value="900"/>
        <device.rerouting.adaptation-interval value="1"/>
        <device.rerouting.with-taz value="false"/>
    </routing>

    <report>
        <verbose value="true"/>
        <no-warnings value="true"/>
    </report>

</configuration>
-->

<routes xmlns:xsi="http://www.w3.org/2001/XMLSchema-instance" xsi:noNamespaceSchemaLocation="http://sumo.dlr.de/xsd/routes_file.xsd">
    <vehicle id="0" type="passenger" depart="0.00" arrival="680.00">
        <route edges="-24290201#2 -24290201#1 -24290201#0 152954987#6 152954987#7 152954987#10 318346885 381937483#13-AddedOnRampEdge 381937483#13 381937483#13-AddedOffRampEdge 381937483#14 356576136#0 356576136#1-AddedOnRampEdge 356576136#1 356576136#2 356576136#3-AddedOnRampEdge 356576136#3 356576136#3-AddedOffRampEdge 356576136#4 356576136#5 24155835#0 24155835#1 243198448#0 243198448#1 243198448#2-AddedOnRampEdge 243198448#2 243198448#2-AddedOffRampEdge 318274914#1 318274914#3 318274914#4-AddedOnRampEdge 318274914#4 318274914#5 318274914#6 318274914#7 318274914#8 318274914#9 318274914#10 318274914#12 318274914#13-AddedOnRampEdge 318274914#13 318274914#15 318274914#16 318274914#16-AddedOffRampEdge 318274914#17 318274914#19 318274914#20-AddedOnRampEdge 318274914#20 318274914#21 318274914#22 318274914#23 318274914#24 318274914#25 318274914#26 318274914#27 318274914#28 282224349#0 282224349#1-AddedOnRampEdge 282224349#1 282224349#2 282224349#3 282224349#4 282224349#4-AddedOffRampEdge 282224349#5 282224349#6 282224349#7 282224349#8-AddedOnRampEdge 282224349#8 24161746#0 24161746#1 24161746#2 24161746#3 24161746#4 24161744#2 -204768391 24175578#3 24175578#4 24175578#5 -24175578#5"/>
    </vehicle>

    <vehicle id="1" type="passenger" depart="0.00" arrival="894.00">
        <route edges="-24161718#1 -24161714#0 24161712#2 24161712#3 24161712#4 24161712#5 59988640#5 59988640#5-AddedOffRampEdge 59988640#8 282224348#7 282224348#8-AddedOnRampEdge 282224348#8 282224348#9 282224348#9-AddedOffRampEdge 282224348#10 282224348#12 282224348#13 282224348#14 282224348#15 282224348#16 282224348#17 282224348#19 282224348#20-AddedOnRampEdge 282224348#20 282224348#23 282224348#24 282224348#24-AddedOffRampEdge 282224348#25 434371441 434371436#0 434371436#1-AddedOnRampEdge 434371436#1 434371436#1-AddedOffRampEdge 434371436#5 434371436#6-AddedOnRampEdge 434371436#6 434371436#7 418671520#0 418671520#2-AddedOnRampEdge 418671520#2 173736686#0 173736686#1 173736695#0 173736695#1 173736695#2 -260888733#5 -260888733#4 -260888733#3 -260888733#2 -260888733#1 -260888733#0 260888734#0.0 gneE117 100956299#2 100956299#4 260888735 389523415#1 173737178.0.0 173737178.0.90 173737178.407 173737178.558 177428420#0 173740374#0 173740374#0-AddedOffRampEdge 173740370 173740373#0 173740373#0-AddedOffRampEdge 243625315 167726466#5-AddedOnRampEdge 167726466#5.0 167726466#5.68 190240087#1 190240087#2 190240087#3 167719756#1 167719756#2 167719756#4.0 167719756#4.24.0 167719756#4.24.124 248304206#0 248304206#1-AddedOnRampEdge 248304206#1 248304206#2 248304206#3 248304206#4 248304206#5 248304206#5-AddedOffRampEdge 242874555#0 242874555#1 242874555#2 242874555#3 242874555#4 242874555#5 242874555#6 331637949#0.0 331637949#0.40 331637949#1.0 331637949#1.83 331637949#3-AddedOffRampEdge.0 331637949#3-AddedOffRampEdge.20 331637949#4 331637953-AddedOnRampEdge 331637953 331637953-AddedOffRampEdge 331637955#3 331637955#4 331637955#5 331637955#7 331637955#8-AddedOnRampEdge 331637955#8"/>
    </vehicle>

    <vehicle id="10" type="passenger" depart="1.00" arrival="580.00">
        <route edges="-171655167 397475476#5 397475476#8 434395747#6-AddedOnRampEdge 434395747#6 434395747#6-AddedOffRampEdge 434395747#7 434395747#7-AddedOffRampEdge 434395747#8 434390958#0 434390958#2-AddedOnRampEdge 434390958#2 434390958#2-AddedOffRampEdge 434390958#3 434390958#3-AddedOffRampEdge 434390958#4 255434099 402014035#0 402014035#2-AddedOnRampEdge 402014035#2 402014035#2-AddedOffRampEdge 402014035#3 402014035#4-AddedOnRampEdge 402014035#4 402014035#5 402014035#6 402014035#6-AddedOffRampEdge 24290300#0 152954988#2 152954988#3 152954988#4 152954988#5 152954988#6 152954988#7 432411734 432411739#0 432411739#2 432411739#3 432411739#4 432411739#5 432411739#6 432411739#7 432411739#8 432411739#9 432411739#10 432411739#11 432411739#12 432411739#13 432411739#14 432412029#0 432412029#2 432412029#3 432412029#4-AddedOnRampEdge 432412029#4 432412029#5 432412029#6 432412029#7 432412029#8 432412029#9 394129882 432416069#0 432416069#2-AddedOnRampEdge 432416069#2 432416069#3 432416069#4 432416069#6 432416069#7 432416069#7-AddedOffRampEdge 432416069#10 434473835#0 434473835#2-AddedOnRampEdge 434473835#2 24206858#0 24206858#1 24206858#2 418671558#0 418671558#2-AddedOnRampEdge 24206855#1 24206855#2 24206855#2-AddedOffRampEdge 173736138 -260888733#8 -260888733#7 -260888733#6 -260888733#5 -260888733#4 169548492#0 169548492#1"/>
    </vehicle>

    <vehicle id="11" type="passenger" depart="1.00" arrival="896.00">
        <route edges="387558810#6 387558810#17 387558810#21 387558810#21-AddedOffRampEdge 397668566 387558809#2-AddedOnRampEdge 387558809#2 387558809#3 387558809#4 387558809#5 387558809#6 387558809#7 396912323 -24289159#8 396937852 -396937853 396912730#5 376557481#1 381937483#3-AddedOnRampEdge 381937483#3 381937483#3-AddedOffRampEdge 381937483#4 381937483#5-AddedOnRampEdge 381937483#5 381937483#5-AddedOffRampEdge 381937483#6 381937483#7-AddedOnRampEdge 381937483#7 381937483#8 381937483#9-AddedOnRampEdge 381937483#9 381937483#9-AddedOffRampEdge 381937483#10 381937483#11-AddedOnRampEdge 381937483#11 381937483#11-AddedOffRampEdge 381937483#12 381937483#13-AddedOnRampEdge 381937483#13 381937483#13-AddedOffRampEdge 381937483#14 356576136#0 356576136#1-AddedOnRampEdge 356576136#1 356576136#2 356576136#3-AddedOnRampEdge 356576136#3 356576136#3-AddedOffRampEdge 356576136#4 356576136#5 24155835#0 24155835#1 243198448#0 243198448#1 243198448#2-AddedOnRampEdge 243198448#2 243198448#2-AddedOffRampEdge 318274914#1 318274914#3 318274914#4-AddedOnRampEdge 318274914#4 318274914#5 318274914#6 318274914#7 318274914#8 318274914#9 318274914#10 318274914#12 318274914#13-AddedOnRampEdge 318274914#13 318274914#15 318274914#16 318274914#16-AddedOffRampEdge 318274914#17 318274914#19 318274914#20-AddedOnRampEdge 318274914#20 318274914#21 318274914#22 318274914#23 318274914#24 318274914#25 318274914#26 318274914#27 318274914#28 282224349#0 282224349#1-AddedOnRampEdge 282224349#1 282224349#2 282224349#3 282224349#4 282224349#4-AddedOffRampEdge 282224349#5 282224349#6 282224349#7 282224349#8-AddedOnRampEdge 282224349#8 24161746#0 24161746#1 24161746#2 24161746#3 24161746#4 24161744#2 -204768391 24175578#3 24175578#4 24175578#5 24175578#6 24175578#7 -24175575#0 24161744#4 24161744#5 24175546#0 -24175551#2 -24175555#6"/>
    </vehicle>

    <vehicle id="12" type="passenger" depart="1.00" arrival="1134.00">
        <route edges="24160927 320626917#1 320626917#2 320626917#3 320626917#4 320626917#5 320626917#6 -24160926#0 24160892#6 24160894 24160886#1 24160886#2 24160886#3 24156828#0 24156828#1 24160884#1 24160884#2 24160884#3 24160884#4 24160884#4-AddedOffRampEdge 90658050 282213714#10 282213714#11 282213714#12 282213714#13 282213714#14 282213714#15 282213714#15-AddedOffRampEdge 282213714#16 282213714#17 282213714#18 282224353#0 282224353#1-AddedOnRampEdge 282224353#1 282224353#2 282224353#3 282224353#4 282224353#5 282224353#6 282224353#7 282224353#8 282224353#9 282224353#11 282224353#12-AddedOnRampEdge 282224353#12 282224353#13 282224353#14 282224353#15 282224353#16 282224353#17 282224353#18 282224353#19-AddedOnRampEdge 282224353#19 282224353#20 282224353#21-AddedOnRampEdge 282224353#21 282224353#22 282224353#24 282224353#25 282224353#26 282224353#27 282224353#28 282224353#29 282224353#31 282224353#32 318274913#0 318274913#0-AddedOffRampEdge 318274913#1 318274913#1-AddedOffRampEdge 318274913#2 243198449 24151152#0 24151152#1-AddedOnRampEdge 24151152#1 24151152#2-AddedOnRampEdge 24151152#2 24151152#2-AddedOffRampEdge 24151152#3 24151152#4-AddedOnRampEdge 24151152#4 24151152#4-AddedOffRampEdge 356576141#4 356576141#5-AddedOnRampEdge 356576141#5 356576141#5-AddedOffRampEdge 24289430 318346894 24289428#1 24289431 24289433#1 403637671#0 403637671#1 403637671#2-AddedOnRampEdge 403637671#2 403637671#4 403637671#5 403637671#6 152769189#0 434390968#2 434390968#3 434390968#4 434390968#6 434390968#6-AddedOffRampEdge 434395742#0 434395745#0 434395745#2 434395745#3 394653461#0 394653461#1 394653461#2 394653461#3 394653461#4 283795462#0 283795454#2 283795454#3 283795454#4 283795454#5 283795454#6 283795454#7 283795454#8 283795454#9 283795454#9-AddedOffRampEdge 132907485 401765955#3-AddedOnRampEdge 401765955#3 401765955#4 401765955#5 396242325 173469364#0 173469364#1 399236986#4 399236986#6 24289311#0 24289311#2 24289311#3 24289311#4 24289322#0 24289322#1"/>
    </vehicle>

    <vehicle id="13" type="passenger" depart="1.00" arrival="282.00">
        <route edges="89642596#4 24167819#1 24167819#2 59988640#15 59988640#16 59988640#17 59988640#18 180172018#4 180172018#5 180172018#6 180172018#7 180172018#8 24157054#0 24157056#7 24157056#8 24157056#1 24157058#0 24157058#1 24157058#1-AddedOffRampEdge 24157058#2 24157058#3 24157058#4 24157058#5-AddedOnRampEdge 24157058#5 24157058#8 24157058#9 24157058#9-AddedOffRampEdge 24157058#10 59988637 434371584#0 434371584#2-AddedOnRampEdge 434371584#2 434371584#3 434371584#4 434371584#5 -24206859#10 -27498742#3 -27498742#2 24206862#0 24206862#1 24206862#2 24206865#0 24206865#1 -24206869 -24206867#0 24206865#3 -24206883#8 -24206883#7 -24206883#6 -24206883#5 -24206883#4 -24206883#3 -24206883#2"/>
    </vehicle>

    <vehicle id="14" type="passenger" depart="1.00" arrival="1158.00">
        <route edges="24196610#6 24196610#7 24196610#8 24196610#9 24196610#10 24196610#11 24196610#13 24196610#14 24196610#15 401158998 432434260#4-AddedOnRampEdge 432434260#4 24156157#1 24156157#2 24156157#3 24156157#4 24156157#4-AddedOffRampEdge 24156157#5 24156157#6 413011795#0 413011795#1 413011795#2 413011795#3 413011795#4 413011795#5 413011795#5-AddedOffRampEdge 413011795#6 434371439 434371442#0 434371442#1-AddedOnRampEdge 434371442#1 434371442#3 434371442#7 434371442#8 434371442#8-AddedOffRampEdge 434371442#11 434371588 434371578#0 434371578#2-AddedOnRampEdge 434371578#2 434371578#5 434371578#6 434371578#9 434371578#10 415113198 399098934#0 399098934#2 399098934#3 399098934#4 399098934#5 399098934#6 399098934#7 399098934#8 399098934#9 399098934#10-AddedOnRampEdge 399098934#10 399098934#10-AddedOffRampEdge 399098934#11 24156192#0 24156192#0-AddedOffRampEdge 24156192#1 398394921 398394924#0 398394924#1-AddedOnRampEdge 398394924#1 424808789 24156180#1-AddedOnRampEdge 24156180#1 24156180#2 24156180#3-AddedOnRampEdge 24156180#3 24156180#3-AddedOffRampEdge 24156180#4 24156180#5-AddedOnRampEdge 24156180#5 24156180#6 24156180#6-AddedOffRampEdge 24156180#7 24156180#8-AddedOnRampEdge 24156180#8 24156180#9 24156180#9-AddedOffRampEdge 24290150#0 152954987#2-AddedOnRampEdge 152954987#2 152954987#3 152954987#4 152954987#5 152954987#6 152954987#7 318298226#8 318298226#9 318298226#10 318298226#11 318346899#1 318346899#3 318346899#4 318346899#5 318346899#6 318346899#7 318346899#8 318346899#8-AddedOffRampEdge 434380864#0 402014035#0 402014035#2-AddedOnRampEdge 402014035#2 402014035#2-AddedOffRampEdge 402014035#3 402014035#4-AddedOnRampEdge 402014035#4 402014035#5 402014035#6 402014035#6-AddedOffRampEdge 24290300#0"/>
    </vehicle>

    <vehicle id="15" type="passenger" depart="1.00" arrival="663.00">
        <route edges="24177993#1 24177970#2 -24177990#0 434371440#10 59988636#1 59988636#2 24177229#0 24177229#1 24177229#2 24177229#3 170082896 59988636#4 59988636#5 59988636#6 59988636#7 59988636#8 59988636#9 24157056#5 24157056#6 24157056#7 24157056#8 24157056#1 24157058#0 24157058#1 24157058#1-AddedOffRampEdge 75219634 24156849#20 24156849#21 24156849#22 24156849#23 24156849#24 24157062#3 24157062#4 24157062#5 24157062#6 24157062#7 24157258#0 24157258#2 24157258#3 24157258#4 24157258#5 -24178369#11 -24178369#5 -24178369#4 24178363#6 24178363#7 399098934#10-AddedOnRampEdge 399098934#10 399098934#10-AddedOffRampEdge 399098934#11 24156192#0 24156192#0-AddedOffRampEdge 24156192#1 398394921 398394924#0 398394924#1-AddedOnRampEdge 398394924#1 424808789 24156180#1-AddedOnRampEdge 24156180#1 24156180#2 24156180#3-AddedOnRampEdge 24156180#3 24156180#3-AddedOffRampEdge 24156180#4 24156180#5-AddedOnRampEdge 24156180#5 24156180#6 24156180#6-AddedOffRampEdge 24156180#7 24156180#8-AddedOnRampEdge 24156180#8 24156180#9 24156180#9-AddedOffRampEdge 24156180#11 434375953 434375955#0 434375955#2-AddedOnRampEdge 434375955#2 434375955#3 434375955#4 434375955#4-AddedOffRampEdge 434375955#5 434375955#5-AddedOffRampEdge 434375955#6 402014031 402014037#0 402014037#2-AddedOnRampEdge 402014037#2 402014037#2-AddedOffRampEdge 402014037#3 402014037#3-AddedOffRampEdge 402014037#4 434390968#0 434390968#2 434390968#3 434390968#4 434390968#6 434390968#6-AddedOffRampEdge 434395742#0 434395745#0 434395745#2 434395745#3 394653461#0 394653461#1 394653461#2 394653400 169119625#0 394653399#0 394653399#2 -223696752#1 -223696752#0 -395072831#6 395072831#5"/>
    </vehicle>

    <vehicle id="16" type="passenger" depart="1.00" arrival="752.00">
        <route edges="91797561#3 91797555#1 91797555#2 179414539 434507885#3 434507885#3-AddedOffRampEdge 91799152#0 56685726#2-AddedOnRampEdge 56685726#2 56685726#2-AddedOffRampEdge 56685726#6 56685726#8-AddedOnRampEdge 56685726#8 56685726#10 56685726#11 56685726#12 395014646 432430375 432430397 140647930#0 140647930#1 140647930#2 140647930#3-AddedOnRampEdge 140647930#3 140647930#3-AddedOffRampEdge 140647930#5 140647930#7 140647930#8-AddedOnRampEdge 140647930#8 140647930#8-AddedOffRampEdge 140647930#11 140647930#12 172830100#7 172830100#8 172830100#9 172830100#10 172830100#11 170335163 26485468#9-AddedOnRampEdge 26485468#9 26485468#9-AddedOffRampEdge 26485468#11 282215705 282215708 282215711#0 282215711#1 282215711#2 282215711#3 282215711#4 282215711#9 282215711#9-AddedOffRampEdge 282215711#10 282215711#11 282215711#12 282215711#13-AddedOnRampEdge 282215711#13 282215711#14 282215711#15-AddedOnRampEdge 282215711#15 282215711#16 282215711#17 282215711#17-AddedOffRampEdge 282215711#18 282215711#19 282215711#20 90658090 434371440#14-AddedOnRampEdge 434371440#14 434371440#16 434371440#16-AddedOffRampEdge 434371440#17 434371440#19 434371440#20-AddedOnRampEdge 434371440#20 434371440#21 434371440#21-AddedOffRampEdge 434371440#22 282224353#0 282224353#1-AddedOnRampEdge 282224353#1 282224353#2 282224353#3 282224353#4 282224353#5 282224353#6 282224353#7 282224353#8 282224353#9 282224353#11 282224353#12-AddedOnRampEdge 282224353#12 282224353#13 282224353#14 282224353#15 282224353#16 282224353#17 282224353#18 282224353#19-AddedOnRampEdge 282224353#19 282224353#20 282224353#21-AddedOnRampEdge 282224353#21 282224353#22 282224353#24 282224353#25 282224353#26 282224353#27 282224353#28 282224353#29 282224353#31 282224353#32 -318274908#6 -318274908#5 318274908#5"/>
    </vehicle>

    <vehicle id="17" type="passenger" depart="1.00" arrival="504.00">
        <route edges="-177132003#1 177132003#1 177131980#2 177132002#0 177137388#0 177137388#1 -239713375#0 -239039761 26715899#0 432434247#5 432434247#5-AddedOffRampEdge 432434247#9 432436212 398851177#0-AddedOnRampEdge 398851177#0 398851177#3 398851177#4 398851177#5 398851177#5-AddedOffRampEdge 398851177#6 432443427#2 432443427#6 432443427#10 432443427#10-AddedOffRampEdge 432443427#11 432445052 432445058#1 432445058#5 432445058#6 432445058#6-AddedOffRampEdge 432445058#9 432445058#10 432445600 170227396 gneE74 -170226320#2 170226803#2-AddedOnRampEdge 170226803#2.0 gneE73 250511487#1.18 250511487#1-AddedOffRampEdge 250511487#2.0 gneE71 250511487#4.10 250511487#4-AddedOffRampEdge 258248041#0 65489217#6 250511487#7 250511487#8 250511487#9-AddedOnRampEdge 250511487#9 250511487#10 250511487#12 250511487#12-AddedOffRampEdge 118211182#0 118211182#0-AddedOffRampEdge 118211182#1 118679933#0 244420354#0 244420353 136390794 136390808#5 136390808#0 136390808#1 136390804 136390786#6 136390787 136390811"/>
    </vehicle>

    <vehicle id="18" type="passenger" depart="1.00" arrival="1896.00">
        <route edges="388449198 383741449#2-AddedOnRampEdge 383741449#2 383741449#3 383741449#4-AddedOnRampEdge 383741449#4 383741449#6 387545693#0 387545693#2 318346903#9-AddedOnRampEdge 318346903#9 159536426#5 159536426#6 159536426#7 159536426#8 159536426#9 159536426#0 159536426#1 159536430#0 159536430#1-AddedOnRampEdge 159536430#1 24155944#1-AddedOnRampEdge 24155944#1 24155944#2 24155944#3-AddedOnRampEdge 24155944#3 24155944#3-AddedOffRampEdge 24155944#6 24155944#6-AddedOffRampEdge 24155944#7 434395744 434395747#0 434395747#2-AddedOnRampEdge 434395747#2 434395747#2-AddedOffRampEdge 434395747#5 434395747#6-AddedOnRampEdge 434395747#6 434395747#6-AddedOffRampEdge 434395747#7 434395747#7-AddedOffRampEdge 434395747#8 434390958#0 434390958#2-AddedOnRampEdge 434390958#2 434390958#2-AddedOffRampEdge 434390958#3 434390958#3-AddedOffRampEdge 434390958#4 255434099 402014035#0 402014035#2-AddedOnRampEdge 402014035#2 402014035#2-AddedOffRampEdge 402014035#3 402014035#4-AddedOnRampEdge 402014035#4 402014035#5 402014035#6 402014035#6-AddedOffRampEdge 402014035#7 434375952 434375951#0 434375951#2-AddedOnRampEdge 434375951#2 434375951#2-AddedOffRampEdge 434375951#3 434375951#4-AddedOnRampEdge 434375951#4 434375951#4-AddedOffRampEdge 434375951#5 434375951#6-AddedOnRampEdge 434375951#6 434375951#6-AddedOffRampEdge 24156191#0 24156191#0-AddedOffRampEdge 24156191#1 398394919 398394926#0 398394926#1-AddedOnRampEdge 398394926#1 398394926#1-AddedOffRampEdge 398394926#2 24156174#1-AddedOnRampEdge 24156174#1 24156174#2 24156174#3 24156174#4 24156174#5 24156174#6 24156174#7 24156174#7-AddedOffRampEdge 24156174#10 399098936 415113203#0 415113203#2 415113203#3 415113203#4 415113203#4-AddedOffRampEdge 415113203#11 434371581 434371587#0 434371587#2-AddedOnRampEdge 434371587#2 434371587#3 434371587#4 434371587#5 434371587#6 434371587#7 434371587#8 434371587#8-AddedOffRampEdge 167469209 434371436#1-AddedOnRampEdge 434371436#1 434371436#1-AddedOffRampEdge 24206967#0.0 24206967#0.56 430228648#0 243707608 243707610 418671534#5 418671534#6.0 418671534#6.144 418671534#7 24206857#1 24206857#2 24206857#2-AddedOffRampEdge 24206857#3 434473838 434473835#0 434473835#2-AddedOnRampEdge 434473835#2 434473835#3 24206855#1 24206855#2 24206855#2-AddedOffRampEdge 24206855#3 24206855#4 24206855#4-AddedOffRampEdge 24206855#5 418671498#0 418671498#2 418671498#3 418671498#5 418671498#6 418671498#8 418671498#9 418671498#10 418671418 418671383#0 418671383#2 418671383#3 -339730035 177134193#1 -177133314#1 -177133314#0 27274510#0 27274510#1 -27274510#1"/>
    </vehicle>

    <vehicle id="19" type="passenger" depart="1.00" arrival="395.00">
        <route edges="261193475#1 -261193475#1 -261193475#0 -161672968 24161340#0 24161340#2 389530743#1 282213707#1 282213707#2-AddedOnRampEdge 282213707#2 282213707#5 282213707#9 282213707#10 282215701 282215715 282215703#0 282215703#1-AddedOnRampEdge 282215703#1 282215703#3 172758130#0 172758130#1 172758130#2 172758130#2-AddedOffRampEdge 172758130#3 26411171#0 26411171#1-AddedOnRampEdge 26411171#1 26411171#1-AddedOffRampEdge 26411171#4 26411253#5 26411253#6-AddedOnRampEdge 26411253#6 26411253#6-AddedOffRampEdge 163573470 26243944#2 26243944#3 26243944#4-AddedOnRampEdge 26243944#4 26243944#5 26243944#6 26243944#7 101513763#0 248340844 395023334#1 70399598#1 70399598#2 91797512 91797533 91797561#0 91797561#1 91797561#2"/>
    </vehicle>

    <vehicle id="2" type="passenger" depart="1.00" arrival="739.00">
        <route edges="24155860#0 24155860#0-AddedOffRampEdge 24155860#3 24155860#6 125596630#0 125596630#1-AddedOnRampEdge 125596630#1 26245216#1-AddedOnRampEdge 26245216#1 26245216#1-AddedOffRampEdge 26245216#2 26245216#2-AddedOffRampEdge -227359906 -227359894 168757658#0-AddedOnRampEdge 168757658#0 168757658#0-AddedOffRampEdge 173737507#0 gneE5 gneE6 gneE11 227751888#1 227751888#1-AddedOffRampEdge 227751888#2 227751888#3-AddedOnRampEdge 227751888#3 227751888#4 401767514#1 401767514#2 417706199#0-AddedOnRampEdge 417706199#0-AddedOffRampEdge 417706199#4 418671474#0 418671474#2 418671474#3.0 gneE126 418671474#5 418671474#6 418671474#7 418671474#8 418671474#9 167469210 434371438#1-AddedOnRampEdge 434371438#1 434371438#6 434371438#6-AddedOffRampEdge 79293362#0 413011801 413011798#1 413011798#2-AddedOnRampEdge 413011798#2 413011798#4 413011798#4-AddedOffRampEdge 172758396#0 172758396#0-AddedOffRampEdge 172758396#2 172758396#2-AddedOffRampEdge 172758396#3 26485608#1 432434250 432434256#0 432434256#1-AddedOnRampEdge 432434256#1 432434256#1-AddedOffRampEdge 432434256#2 26485468#1 282215716#9 282215716#10 -24196620 -170335161#23 -170335161#22 -170335161#21 -170335161#20 -170335161#19 -170335161#18 -170335161#17 -170335161#15 -170335161#14"/>
    </vehicle>

    <vehicle id="3" type="passenger" depart="1.00" arrival="60.00">
        <route edges="24156872#0 389530746#6 389530746#8-AddedOnRampEdge 389530746#8 389530746#8-AddedOffRampEdge 91900707#0 65489221#0 389530746#11 91900721#0 389530746#13-AddedOnRampEdge 389530746#13"/>
    </vehicle>

    <vehicle id="4" type="passenger" depart="1.00" arrival="492.00">
        <route edges="24167593#1 -24167592#3 -24167591 24167589#2 -24167589#0 304385373#24 59988644#0 297218053#2 297218053#3 297218053#4 297218053#4-AddedOffRampEdge 89642590 282224353#1-AddedOnRampEdge 282224353#1 282224353#2 282224353#3 282224353#4 282224353#5 282224353#6 282224353#7 282224353#8 282224353#9 282224353#11 282224353#12-AddedOnRampEdge 282224353#12 282224353#13 282224353#14 282224353#15 282224353#16 282224353#17 282224353#18 282224353#19-AddedOnRampEdge 282224353#19 282224353#20 282224353#21-AddedOnRampEdge 282224353#21 282224353#22 282224353#24 282224353#25 282224353#26 282224353#27 282224353#28 282224353#29 282224353#31 282224353#32 318274913#0 318274913#0-AddedOffRampEdge 318274913#1 318274913#1-AddedOffRampEdge 318274913#2 243198449 24151152#0 24151152#1-AddedOnRampEdge 24151152#1 24151152#2-AddedOnRampEdge 24151152#2 24151152#2-AddedOffRampEdge 24197109 -24197112#3 -24197112#2 -24197112#1 -24197112#0 304385361 304385366#0 304385366#1 304385366#2-AddedOnRampEdge 304385366#2 204619143#3 204619143#4 204619143#5 204619143#6 204619143#7 204619143#8 204619143#1 394516968#0 304385367 394517380 184875416 184875398#1"/>
    </vehicle>

    <vehicle id="5" type="passenger" depart="1.00" arrival="694.00">
        <route edges="409874439 400529797 409874441 400529832#2-AddedOnRampEdge.0 400529832#2-AddedOnRampEdge.48 400529832#2 327528499#1.0 327528499#1.30 327528499#1.122 24155796#1 24155796#2 24155796#4 24155796#5 -173739123#1 331613634 173737713#2-AddedOnRampEdge 173739438#0 gneE9 gneE10 425706320#1 425706320#2-AddedOnRampEdge 425706320#2 150783624 150783624-AddedOffRampEdge 150783619#0 227086594#1 227300452#1-AddedOnRampEdge 227300452#1 227300452#2 150783617#0 150783617#1 112672265#0 112672265#1 112672265#2 112672265#3 112672265#3-AddedOffRampEdge 112672265#4 418671547.0 418671547.74 399098918#0 399098918#1 24206857#1 24206857#2 24206857#2-AddedOffRampEdge 24206857#3 434473839#0 434473839#2 434473839#3 434473839#4 434473839#5 434473839#6 434473839#7 434473839#9 24206721#0 24206721#1 24206721#3 24206721#4 -24206736#1 24206747 -24206740#1 -24206740#0"/>
    </vehicle>

    <vehicle id="6" type="passenger" depart="1.00" arrival="451.00">
        <route edges="432430391 24156151 24156157#0 24156157#1 24156157#2 24156157#3 24156157#4 24156157#4-AddedOffRampEdge 24156157#5 24156157#6 413011795#0 413011795#1 413011795#2 413011795#3 413011795#4 413011795#5 413011795#5-AddedOffRampEdge 167469211 434371440#1-AddedOnRampEdge 434371440#1 434371440#1-AddedOffRampEdge 434371440#4 434371440#6 434371440#7-AddedOnRampEdge 434371440#7 434371440#8 434371440#10 434371440#13 434371440#14-AddedOnRampEdge 434371440#14 434371440#16 434371440#16-AddedOffRampEdge 434371440#17 434371440#19 434371440#20-AddedOnRampEdge 434371440#20 434371440#21 434371440#21-AddedOffRampEdge 434371440#22 282224353#0 282224353#1-AddedOnRampEdge 282224353#1 282224353#2 282224353#3 282224353#4 282224353#5 282224353#6 -24167572#4 24167572#4"/>
    </vehicle>

    <vehicle id="7" type="passenger" depart="1.00" arrival="408.00">
        <route edges="177797284#2 177797290 -177797296#13 416628640 416628641 289212922#3 289212922#3-AddedOffRampEdge 289212922#4 344263853 432445052 432445058#1 432445058#5 432445058#6 432445058#6-AddedOffRampEdge 432445058#9 432445058#10 432445600 170227396 gneE74 -170226320#2 170226803#2-AddedOnRampEdge 170226803#2.0 170226803#2.104 432421373#1 26245137#0 26245137#2 26245137#3-AddedOnRampEdge 26245137#3-AddedOnRampEdge-AddedOffRampEdge 26245137#3 26245137#4 26245137#5 26245137#6 171649187#0 194066132#8-AddedOnRampEdge 194066132#8 194066132#11 194066132#11-AddedOffRampEdge 194066132#12 194066132#13 194066132#14 287441164 287441167#0 287441167#1 287441167#2-AddedOnRampEdge 287441167#2 287441167#4 24214823#0 24214823#1 24214823#2 24214823#6-AddedOnRampEdge 24214823#6 24214820#1 24214820#2 24214819 258352127#1 258352129#0 258352129#2 258352129#3 258352129#4 258352129#5 258352129#6 24214814#4 24214814#5 24214814#6 24214814#7 24214814#8 24214814#9 24214794#8"/>
    </vehicle>

    <vehicle id="8" type="passenger" depart="1.00" arrival="528.00">
        <route edges="-26244529#9 -26244529#7 -26244444#2 -26244444#1 -26244444#0 310772678#10 310772678#11 310772678#11-AddedOffRampEdge 232757002 286632144#10-AddedOnRampEdge 286632144#10 286632144#13 286632144#14 432443423#2 432443423#3 432443423#5 432443423#5-AddedOffRampEdge 398851176#0 432436223#1 432436223#2 432436223#3 432436223#4 432436223#4-AddedOffRampEdge 432436223#5 432434250 432434256#0 432434256#1-AddedOnRampEdge 432434256#1 432434256#1-AddedOffRampEdge 432434256#2 26485468#1 26485468#3 26485468#4 26485468#5 26485468#6 26485468#8 26485468#9-AddedOnRampEdge 26485468#9 26485468#9-AddedOffRampEdge 26485468#11 282215705 282215707#0 282215707#1-AddedOnRampEdge 282215707#1 282215707#4 282215707#5 282215707#6 282215707#7 282215707#7-AddedOffRampEdge 282215707#10 282213701#1 282213701#5 282213701#8 282213701#8-AddedOffRampEdge 282213701#10 397611520#0 397611520#1 397611520#2 397611520#2-AddedOffRampEdge 24160935#0 24160935#2 24160935#3 24160935#4 24160935#5 24160935#6 24160935#9 24160935#10 24160935#11-AddedOnRampEdge"/>
    </vehicle>

    <vehicle id="9" type="passenger" depart="1.00" arrival="436.00">
        <route edges="24161747#1 24161746#2 24161746#3 24161745#8 413011804#17 413011804#17-AddedOffRampEdge 413011804#18 413011804#19 282213714#8 282213714#9 282213714#10 282213714#11 282213714#12 282213714#13 282213714#14 282213714#15 282213714#15-AddedOffRampEdge 282213714#16 282213714#17 282213714#18 282224353#0 282224353#1-AddedOnRampEdge 282224353#1 282224353#2 282224353#3 282224353#4 282224353#5 282224353#6 282224353#7 282224353#8 282224353#9 282224353#11 282224353#12-AddedOnRampEdge 282224353#12 282224353#13 282224353#14 282224353#15 282224353#16 282224353#17 282224353#18 282224353#19-AddedOnRampEdge 282224353#19 282224353#20 282224353#21-AddedOnRampEdge 282224353#21 282224353#22 282224353#24 282224353#25 282224353#26 282224353#27 282224353#28 282224353#29 282224353#31 282224353#32 318274913#0 318274913#0-AddedOffRampEdge 318274913#1 318274913#1-AddedOffRampEdge 318274913#2 243198449 203696868#0 318274906 24155835#1 400272814"/>
    </vehicle>

    <vehicle id="20" type="passenger" depart="2.00" arrival="1081.00">